ITEM: TIMESTEP
0
ITEM: NUMBER OF ATOMS
0
ITEM: BOX BOUNDS pp pp fm
0.0000000000000000e+000 1.0000000000000000e+001
0.0000000000000000e+000 1.0000000000000000e+001
0.0000000000000000e+000 6.0000000000000000e+001
ITEM: ATOMS mol x y z radius c_voro[1] c_coordination c_kinetic c_voro[2] c_order[1] c_order[2] c_order[3] c_voro[3] 
ITEM: TIMESTEP
400000
ITEM: NUMBER OF ATOMS
3000
ITEM: BOX BOUNDS pp pp fm
0.0000000000000000e+000 1.0000000000000000e+001
0.0000000000000000e+000 1.0000000000000000e+001
0.0000000000000000e+000 6.0000000000000000e+001
ITEM: ATOMS mol x y z radius c_voro[1] c_coordination c_kinetic c_voro[2] c_order[1] c_order[2] c_order[3] c_voro[3] 
351 1.78622 0.510368 0.499314 0.5 0.794898 7 1.23758e-011 12 0 0 0 4.75203 
558 2.75002 0.243781 0.495433 0.5 0.802007 5 1.1877e-011 10 0 0 0 4.78334 
63 3.76167 0.00731415 0.499151 0.5 0.84593 5 2.74026e-012 11 0 0 0 5.01001 
99 5.45917 0.474968 0.498258 0.5 0.873147 4 1.59315e-011 11 0 0 0 5.0591 
187 6.44353 0.299029 0.499769 0.5 0.859899 3 7.77105e-011 11 0 0 0 5.01231 
247 8.15462 0.556095 0.498049 0.5 0.983721 5 2.50235e-011 12 0 0 0 5.57295 
574 9.4783 0.139747 0.4967 0.5 1.04926 4 8.19782e-011 13 0 0 0 6.03273 
501 0.792984 0.795599 0.497858 0.5 0.890151 5 7.67242e-012 11 0 0 0 5.2141 
364 2.49894 1.21165 0.496987 0.5 0.788815 5 1.67563e-012 11 0 0 0 4.7289 
425 3.46752 0.962994 0.497315 0.5 0.801107 6 8.1402e-012 11 0 0 0 4.77813 
300 4.48448 0.698222 0.494224 0.5 0.833339 6 2.3948e-011 11 0 0 0 4.95962 
341 6.30891 1.32526 0.496906 0.5 0.920472 3 2.11823e-011 11 0 0 0 5.26566 
417 7.22459 0.923459 0.498762 0.5 0.882049 5 5.17838e-011 11 0 0 0 5.13534 
277 9.74164 1.1044 0.498431 0.5 0.933552 3 1.46703e-010 10 0 0 0 5.38725 
318 0.488999 1.76876 0.499482 0.5 0.893235 3 7.65161e-010 13 0 0 0 5.14992 
373 1.52591 1.47587 0.497401 0.5 0.816695 6 1.36076e-011 10 0 0 0 4.84312 
199 3.19841 1.92609 0.496872 0.5 0.796295 7 3.56264e-012 11 0 0 0 4.75904 
413 4.1904 1.65394 0.496223 0.5 0.803255 6 2.17555e-011 10 0 0 0 4.78736 
541 5.16515 1.43074 0.498363 0.5 0.864098 6 4.16758e-012 9 0 0 0 5.1101 
504 7.74912 1.90221 0.497752 0.5 0.918551 4 1.36092e-011 11 0 0 0 5.2919 
369 8.71856 1.56407 0.497222 0.5 0.949091 4 1.29316e-011 11 0 0 0 5.43606 
545 1.19174 2.48015 0.498032 0.5 0.863101 4 1.04376e-011 11 0 0 0 5.01911 
169 2.23218 2.18373 0.499256 0.5 0.807924 6 1.82494e-012 11 0 0 0 4.80642 
370 3.88214 2.65565 0.495566 0.5 0.837125 5 2.8285e-011 11 0 0 0 4.94049 
141 4.85024 2.40533 0.499119 0.5 0.889119 4 5.16832e-011 11 0 0 0 5.23743 
359 6.79768 2.20994 0.498325 0.5 0.933132 4 1.15769e-011 13 0 0 0 5.37826 
297 9.53928 2.13534 0.496488 0.5 0.88254 5 2.48134e-011 11 0 0 0 5.16414 
84 0.255972 2.83265 0.496478 0.5 0.901484 5 3.64213e-012 10 0 0 0 5.29796 
20 1.94233 3.14079 0.498455 0.5 0.836949 7 1.889e-011 10 0 0 0 4.93955 
189 2.91602 2.9133 0.498999 0.5 0.82618 6 2.66604e-011 11 0 0 0 4.88845 
517 6.26217 3.05571 0.498982 0.5 1.03459 3 1.31983e-011 12 0 0 0 5.81093 
405 7.36725 3.03183 0.496494 0.5 0.949774 4 3.01274e-012 11 0 0 0 5.37391 
542 8.33971 2.70915 0.498938 0.5 0.920166 3 3.90037e-010 11 0 0 0 5.27333 
252 9.29373 3.1047 0.499779 0.5 0.891093 3 1.05253e-011 12 0 0 0 5.23862 
290 1.02566 3.54043 0.499478 0.5 0.943362 4 4.27572e-011 10 0 0 0 5.43945 
78 2.83234 3.90974 0.49788 0.5 0.863277 4 1.90959e-011 12 0 0 0 5.05614 
262 3.79858 3.65214 0.49971 0.5 0.860708 4 2.17567e-011 10 0 0 0 5.05627 
292 4.77784 3.44958 0.496475 0.5 0.918436 5 2.17396e-012 11 0 0 0 5.34663 
258 8.48877 3.69794 0.497956 0.5 0.853813 6 4.5792e-011 11 0 0 0 5.01131 
407 0.290316 4.56563 0.49734 0.5 1.01528 6 3.68963e-011 12 0 0 0 5.84798 
481 1.85856 4.13717 0.497998 0.5 0.8782 6 4.3071e-013 11 0 0 0 5.19312 
138 3.51747 4.63827 0.496619 0.5 0.791932 3 6.00767e-011 11 0 0 0 4.74178 
80 4.49037 4.4073 0.496914 0.5 0.791705 6 5.05836e-011 10 0 0 0 4.74063 
224 5.46477 4.18252 0.498558 0.5 0.894515 4 6.2465e-011 12 0 0 0 5.17297 
472 6.56726 4.008 0.498927 0.5 0.936785 4 2.63823e-011 9 0 0 0 5.46754 
21 7.54491 4.21813 0.498522 0.5 1.0333 3 1.13803e-011 13 0 0 0 5.79223 
47 9.39732 4.11569 0.496786 0.5 0.879055 4 5.43004e-011 11 0 0 0 5.21183 
507 1.56596 5.09336 0.496921 0.5 0.955857 4 1.55459e-011 12 0 0 0 5.54294 
289 2.54156 4.86748 0.497358 0.5 0.825315 5 8.19243e-012 11 0 0 0 4.89083 
570 5.17148 5.1428 0.497941 0.5 0.786879 4 4.78666e-012 10 0 0 0 4.72076 
414 6.14575 4.9148 0.498237 0.5 0.869983 4 2.22825e-011 11 0 0 0 5.1616 
393 7.744 5.24116 0.496287 0.5 0.961033 5 1.06752e-011 11 0 0 0 5.58524 
409 8.58073 4.69363 0.498034 0.5 0.818174 5 4.4954e-011 10 0 0 0 4.85287 
495 9.47397 5.14317 0.498443 0.5 0.922204 4 3.53518e-011 12 0 0 0 5.28842 
214 2.24901 5.8237 0.497995 0.5 0.848014 5 1.34765e-011 11 0 0 0 4.97296 
555 3.2241 5.59828 0.498298 0.5 0.785964 6 7.90301e-012 12 0 0 0 4.71654 
330 4.19789 5.37101 0.498239 0.5 0.786687 7 7.19825e-012 11 0 0 0 4.71953 
50 5.85543 5.87229 0.498912 0.5 0.786139 6 7.27165e-012 11 0 0 0 4.71738 
475 6.82917 5.64476 0.498142 0.5 0.951128 6 9.87702e-012 13 0 0 0 5.52966 
283 8.6366 5.692 0.497885 0.5 0.921166 4 9.62382e-011 11 0 0 0 5.29014 
543 0.208517 6.12589 0.496697 0.5 0.952983 6 1.19225e-011 12 0 0 0 5.53173 
358 1.20848 6.12173 0.498093 0.5 0.924179 4 1.52539e-011 10 0 0 0 5.38251 
246 2.93433 6.55534 0.496549 0.5 0.786561 7 9.16165e-012 11 0 0 0 4.71997 
388 3.90812 6.32807 0.497503 0.5 0.784704 7 8.4776e-012 11 0 0 0 4.71209 
546 4.88184 6.10048 0.498308 0.5 0.785653 7 1.12102e-011 10 0 0 0 4.71583 
2 6.53938 6.60179 0.497717 0.5 0.888697 7 1.39582e-011 11 0 0 0 5.21316 
467 9.26853 6.4669 0.496792 0.5 0.847801 5 4.92337e-012 10 0 0 0 5.00715 
54 0.0601767 7.11482 0.496987 0.5 0.854583 4 8.71831e-012 10 0 0 0 5.0886 
384 1.05578 7.20719 0.496172 0.5 0.95913 5 8.65679e-012 13 0 0 0 5.53533 
513 1.96025 6.78107 0.495221 0.5 0.883388 6 9.37811e-012 10 0 0 0 5.20211 
70 3.61805 7.28503 0.4967 0.5 0.787807 5 7.78928e-012 11 0 0 0 4.72511 
223 4.59206 7.05757 0.498523 0.5 0.785457 6 1.48321e-011 11 0 0 0 4.71464 
87 5.56579 6.82993 0.499635 0.5 0.786326 6 1.8384e-011 12 0 0 0 4.7178 
213 8.33788 6.8327 0.497561 0.5 0.919182 6 7.39604e-012 11 0 0 0 5.35454 
212 2.64615 7.52301 0.498935 0.5 0.867814 3 2.54391e-012 11 0 0 0 5.07956 
190 5.2765 7.78715 0.498234 0.5 0.786457 5 1.56296e-011 10 0 0 0 4.7192 
227 6.25013 7.55904 0.498833 0.5 0.840566 8 9.33409e-012 11 0 0 0 4.98137 
464 7.59158 7.49823 0.496479 0.5 0.977119 4 4.4535e-012 11 0 0 0 5.56875 
46 9.12012 7.45563 0.497503 0.5 0.869768 6 4.94117e-012 11 0 0 0 5.15049 
106 0.482379 8.0264 0.496065 0.5 0.962015 4 8.37831e-012 12 0 0 0 5.4955 
167 2.37968 8.56223 0.498023 0.5 0.948682 4 2.19047e-012 12 0 0 0 5.46244 
402 3.33285 8.25988 0.49886 0.5 0.807516 5 4.39058e-011 11 0 0 0 4.80476 
282 4.30231 8.01466 0.497155 0.5 0.788602 5 1.13047e-011 11 0 0 0 4.72829 
236 5.96087 8.51626 0.498166 0.5 0.791557 7 9.19398e-012 11 0 0 0 4.73989 
147 6.95441 8.26893 0.498767 0.5 0.890989 4 5.18707e-012 11 0 0 0 5.18959 
229 8.37381 8.121 0.495996 0.5 0.93627 5 2.78538e-012 12 0 0 0 5.46321 
448 9.34765 8.42931 0.497838 0.5 1.04294 3 1.18798e-011 11 0 0 0 5.84856 
121 0.198928 9.31074 0.497246 0.5 0.956982 4 4.81021e-011 11 0 0 0 5.50396 
220 1.07677 8.83051 0.498835 0.5 0.9067 5 9.47993e-012 11 0 0 0 5.25803 
100 3.0615 9.29354 0.499658 0.5 0.863227 4 2.75537e-013 11 0 0 0 5.08433 
533 4.01752 8.98872 0.49942 0.5 0.804444 3 4.91704e-011 11 0 0 0 4.79155 
450 4.98779 8.74672 0.499439 0.5 0.790483 4 4.09888e-012 11 0 0 0 4.73455 
91 6.6584 9.23276 0.497211 0.5 0.843545 5 8.96314e-012 11 0 0 0 4.96385 
254 7.81938 8.95314 0.496665 0.5 0.935106 4 2.89662e-012 10 0 0 0 5.41693 
326 1.05338 9.83014 0.498834 0.5 0.846945 6 7.31338e-012 12 0 0 0 5.05565 
146 2.00897 9.53552 0.497036 0.5 0.857383 4 1.08236e-011 10 0 0 0 5.01582 
90 4.71611 9.7091 0.499018 0.5 0.807914 5 4.42509e-012 11 0 0 0 4.80526 
424 5.68913 9.47863 0.498546 0.5 0.821636 5 8.34811e-012 11 0 0 0 4.8635 
565 7.37357 9.93168 0.498442 0.5 0.868007 4 4.53696e-011 11 0 0 0 5.05988 
293 8.54884 9.63712 0.498935 0.5 1.03789 3 2.96019e-011 13 0 0 0 5.82792 
421 0.296394 0.144362 1.07168 0.5 0.922292 5 4.36916e-011 15 0 0 0 5.20217 
161 8.071 1.26522 1.19811 0.5 0.796434 6 1.23186e-011 14 0 0 0 4.62839 
139 8.95071 0.77288 1.06295 0.5 0.869064 6 5.45105e-011 14 0 0 0 5.06533 
279 7.04839 1.57933 1.23275 0.5 0.806645 5 2.5593e-011 12 0 0 0 4.66768 
201 3.77281 2.0737 1.30191 0.5 0.760393 6 8.79259e-012 15 0 0 0 4.45564 
171 5.81097 2.17746 0.657067 0.5 0.96715 7 2.4995e-011 12 0 0 0 5.50245 
294 7.56401 2.4699 1.29988 0.5 0.852832 5 2.61883e-011 14 0 0 0 4.81273 
62 8.66136 2.17916 1.28354 0.5 0.833195 5 1.48236e-010 15 0 0 0 4.74429 
196 4.41952 2.95048 1.28536 0.5 0.816509 7 3.6413e-012 15 0 0 0 4.66657 
469 5.40401 2.96998 1.11106 0.5 0.836692 7 1.42279e-011 13 0 0 0 4.8928 
333 0.165767 3.701 0.984036 0.5 0.91525 5 7.30236e-012 14 0 0 0 5.19285 
348 6.82374 3.38082 1.25985 0.5 0.86357 6 8.76148e-012 14 0 0 0 4.89289 
310 7.80433 3.57153 1.21586 0.5 0.812182 7 5.41544e-012 13 0 0 0 4.69645 
272 1.0747 4.3532 1.07998 0.5 0.813467 5 4.22261e-011 13 0 0 0 4.71644 
165 7.959 4.67024 1.2885 0.5 0.819919 6 8.54288e-012 14 0 0 0 4.75679 
177 0.704738 5.36982 0.923284 0.5 0.942828 5 6.15816e-012 14 0 0 0 5.31586 
518 8.04009 5.76113 1.29741 0.5 0.804853 6 2.47219e-010 14 0 0 0 4.68215 
315 9.57186 5.83716 1.21169 0.5 0.845964 6 2.26631e-011 14 0 0 0 4.82146 
476 7.48384 6.36545 0.726027 0.5 1.00203 5 3.18669e-011 13 0 0 0 5.51361 
496 0.616779 6.67901 1.22278 0.5 0.801214 6 6.34579e-012 13 0 0 0 4.70566 
219 6.90887 7.23492 1.17776 0.5 0.850997 5 5.70018e-012 13 0 0 0 4.86833 
16 8.4305 7.4757 1.2578 0.5 0.791828 6 2.70109e-012 13 0 0 0 4.6218 
302 0.0495938 8.60366 1.18836 0.5 0.773217 6 1.89356e-011 13 0 0 0 4.53697 
1 1.58747 8.01162 0.760534 0.5 1.00876 5 8.26617e-012 13 0 0 0 5.50502 
367 1.70804 8.96665 1.26235 0.5 0.818509 5 3.3739e-012 14 0 0 0 4.72246 
483 7.18521 8.86846 1.26508 0.5 0.80431 6 4.01995e-012 13 0 0 0 4.68775 
232 8.5067 8.78379 1.23262 0.5 0.855167 6 2.10407e-011 14 0 0 0 4.83879 
573 9.33816 9.29059 1.00569 0.5 0.855967 6 2.52157e-011 13 0 0 0 5.05291 
67 7.90496 9.58153 1.26975 0.5 0.807987 5 2.5238e-011 13 0 0 0 4.68879 
225 2.34301 0.652599 1.3177 0.5 0.762552 5 2.88204e-012 13 0 0 0 4.46966 
287 3.3062 0.383815 1.3145 0.5 0.780305 6 9.39976e-012 13 0 0 0 4.5961 
260 4.83326 0.262415 1.32371 0.5 0.802517 8 1.11851e-011 12 0 0 0 4.68718 
231 5.80601 0.0305905 1.32416 0.5 0.844832 7 5.6056e-012 17 0 0 0 4.84448 
335 7.35284 0.613126 1.44068 0.5 0.820436 6 1.06841e-011 15 0 0 0 4.69754 
430 8.29009 0.392472 1.71007 0.5 0.814482 7 3.72525e-011 13 0 0 0 4.7307 
15 9.27899 0.408028 1.93416 0.5 0.867533 7 2.86975e-011 17 0 0 0 4.98296 
207 0.388598 1.20191 1.31715 0.5 0.813313 5 7.46809e-011 13 0 0 0 4.74141 
13 1.3553 0.925329 1.31454 0.5 0.787285 5 2.79154e-012 14 0 0 0 4.59005 
83 4.03936 1.06381 1.31144 0.5 0.854666 4 5.50293e-012 16 0 0 0 4.89228 
385 5.41021 1.07555 1.40043 0.5 0.868553 5 1.11474e-011 15 0 0 0 4.95019 
173 6.38295 0.845887 1.37125 0.5 0.796204 8 1.20709e-011 13 0 0 0 4.65997 
133 8.74501 1.2535 1.93662 0.5 0.792087 8 2.86077e-011 14 0 0 0 4.59391 
329 1.10962 1.89459 1.3044 0.5 0.784871 6 9.63617e-012 14 0 0 0 4.59027 
157 2.08776 1.61942 1.31208 0.5 0.780428 7 2.2324e-012 16 0 0 0 4.54089 
160 3.05542 1.36726 1.31374 0.5 0.756065 4 4.21257e-012 12 0 0 0 4.44858 
571 4.73737 1.81069 1.3185 0.5 0.85246 5 1.19864e-011 16 0 0 0 4.88373 
178 6.11857 1.79725 1.52931 0.5 0.900794 5 2.34438e-011 15 0 0 0 5.12697 
265 9.466 1.58726 1.32956 0.5 0.785869 8 4.42969e-011 14 0 0 0 4.60494 
383 0.167273 2.03923 1.88067 0.5 0.812569 7 3.40172e-011 16 0 0 0 4.71333 
250 1.83769 2.58741 1.32473 0.5 0.78383 6 8.56077e-013 14 0 0 0 4.58202 
387 2.81114 2.3475 1.31683 0.5 0.75141 5 6.5936e-012 13 0 0 0 4.42249 
128 5.36215 2.34339 1.88921 0.5 0.809476 9 1.4282e-011 14 0 0 0 4.77564 
295 9.56059 2.64105 1.35887 0.5 0.837886 4 1.01278e-011 14 0 0 0 4.76355 
544 0.65273 2.77746 1.4126 0.5 0.871838 6 4.61821e-012 15 0 0 0 4.92058 
285 3.44328 3.16568 1.31035 0.5 0.863748 5 1.42622e-011 13 0 0 0 4.8919 
154 6.12009 2.99483 1.85635 0.5 0.875849 5 4.31528e-011 16 0 0 0 4.98402 
43 8.71719 3.17691 1.32036 0.5 0.798436 5 1.26853e-010 12 0 0 0 4.66517 
234 0.59723 3.93076 1.85634 0.5 0.795233 6 1.66442e-011 13 0 0 0 4.64228 
463 1.37592 3.46758 1.43329 0.5 0.80383 6 5.06275e-012 14 0 0 0 4.66298 
166 2.46384 3.3671 1.32113 0.5 0.840228 4 6.10602e-012 14 0 0 0 4.78036 
96 5.91922 3.80468 1.30519 0.5 0.779741 6 7.93361e-011 14 0 0 0 4.55861 
286 9.60265 3.82811 1.84154 0.5 0.823756 6 2.03601e-011 15 0 0 0 4.74703 
506 2.0066 4.24187 1.48141 0.5 0.804705 7 5.3591e-012 14 0 0 0 4.68738 
378 2.96458 4.47333 1.31318 0.5 0.777417 8 2.25414e-011 13 0 0 0 4.57983 
241 3.93349 4.226 1.30748 0.5 0.794467 3 2.81884e-011 15 0 0 0 4.63085 
66 4.91071 4.01109 1.31317 0.5 0.763758 6 8.09329e-012 13 0 0 0 4.46115 
251 6.6245 4.53842 1.34469 0.5 0.875239 5 8.27391e-012 15 0 0 0 4.9355 
548 7.36109 4.1514 1.89935 0.5 0.832396 7 5.93381e-012 13 0 0 0 4.81124 
22 8.82499 4.17105 1.31479 0.5 0.775047 8 1.03971e-010 13 0 0 0 4.59701 
350 0.71344 4.92317 1.81784 0.5 0.793632 8 1.56862e-011 14 0 0 0 4.64893 
485 1.62692 5.16681 1.49225 0.5 0.849864 5 2.98795e-012 15 0 0 0 4.86437 
523 3.64581 5.20519 1.31536 0.5 0.716799 7 8.24154e-012 14 0 0 0 4.28197 
380 4.6179 4.97106 1.31281 0.5 0.718459 7 5.26464e-012 16 0 0 0 4.2888 
557 5.59309 4.74985 1.31509 0.5 0.717064 9 5.19217e-012 13 0 0 0 4.28341 
58 7.23968 5.26934 1.64015 0.5 0.878236 5 5.95104e-011 15 0 0 0 4.92515 
264 8.84345 5.16957 1.36564 0.5 0.794743 4 2.88837e-010 14 0 0 0 4.593 
19 9.75781 4.67703 1.33637 0.5 0.865797 4 7.12722e-011 16 0 0 0 4.81806 
256 0.400007 5.87147 1.77106 0.5 0.835877 6 3.00056e-011 16 0 0 0 4.82267 
394 2.67121 5.42943 1.31425 0.5 0.760613 6 5.04068e-012 16 0 0 0 4.50366 
10 4.32906 5.93529 1.31507 0.5 0.714543 8 1.03483e-011 15 0 0 0 4.27276 
64 5.30253 5.70665 1.31552 0.5 0.709464 8 5.99107e-012 15 0 0 0 4.2522 
522 6.27984 5.47673 1.31661 0.5 0.746573 5 1.01018e-011 12 0 0 0 4.42621 
235 1.42457 6.1459 1.47413 0.5 0.884042 6 7.55838e-012 18 0 0 0 5.00325 
42 2.38118 6.38826 1.31266 0.5 0.737256 10 1.16012e-011 13 0 0 0 4.4229 
182 3.35509 6.16189 1.31386 0.5 0.717392 8 9.24827e-012 14 0 0 0 4.28501 
118 5.01383 6.66404 1.31683 0.5 0.709588 5 2.96472e-012 14 0 0 0 4.25261 
416 5.98926 6.43353 1.31565 0.5 0.769393 7 1.15038e-011 13 0 0 0 4.51676 
45 6.93716 6.21824 1.55031 0.5 0.870714 4 5.03163e-011 15 0 0 0 4.85511 
6 8.68917 6.5174 1.37905 0.5 0.849334 6 3.30954e-012 16 0 0 0 4.88422 
346 3.06411 7.11868 1.31245 0.5 0.723503 8 7.219e-012 13 0 0 0 4.3105 
564 4.03831 6.89208 1.31459 0.5 0.708214 7 1.06541e-011 14 0 0 0 4.24711 
168 7.75225 6.79887 1.58631 0.5 0.875009 3 9.07522e-010 16 0 0 0 4.94821 
521 9.63244 6.84873 1.36068 0.5 0.806256 5 5.42809e-012 15 0 0 0 4.64984 
443 0.282833 7.60798 1.382 0.5 0.791808 8 9.69253e-013 13 0 0 0 4.67113 
261 1.18863 7.38429 1.74177 0.5 0.887287 4 6.86156e-012 15 0 0 0 4.9902 
316 2.09005 7.34487 1.31072 0.5 0.778418 9 1.04046e-011 14 0 0 0 4.60025 
88 3.7463 7.84978 1.31177 0.5 0.72091 7 8.36527e-012 14 0 0 0 4.29903 
307 4.72308 7.62081 1.31431 0.5 0.708995 7 2.59387e-012 14 0 0 0 4.25028 
372 5.70062 7.39089 1.31722 0.5 0.770877 4 6.51565e-012 14 0 0 0 4.52216 
216 7.56502 7.95421 1.40596 0.5 0.922605 4 8.30887e-012 16 0 0 0 5.08662 
263 9.32771 7.90357 1.36702 0.5 0.800092 6 4.48107e-012 15 0 0 0 4.65519 
244 0.968594 8.32925 1.47883 0.5 0.806173 6 3.2908e-011 15 0 0 0 4.67974 
125 1.88779 8.16957 1.83872 0.5 0.787084 6 2.94541e-011 13 0 0 0 4.60716 
356 2.74292 8.10232 1.30827 0.5 0.771027 4 5.44945e-012 13 0 0 0 4.52521 
502 4.431 8.57853 1.31287 0.5 0.720575 6 4.96151e-011 15 0 0 0 4.29747 
159 5.41002 8.34765 1.31553 0.5 0.712042 6 8.69478e-012 13 0 0 0 4.26256 
194 6.39527 8.11942 1.31425 0.5 0.857268 3 6.01892e-012 14 0 0 0 4.8249 
321 0.759039 9.29494 1.32548 0.5 0.791374 6 2.32182e-011 14 0 0 0 4.59692 
455 2.57192 8.89416 1.92088 0.5 0.82533 6 9.22319e-012 14 0 0 0 4.76052 
338 3.42648 8.83628 1.31064 0.5 0.792251 3 9.07931e-011 13 0 0 0 4.59552 
304 5.11889 9.3042 1.31986 0.5 0.768601 6 7.44688e-012 17 0 0 0 4.53899 
94 6.09744 9.07403 1.3168 0.5 0.760271 7 1.68436e-011 12 0 0 0 4.48693 
298 9.38269 8.73354 1.92198 0.5 0.767537 8 1.04721e-011 13 0 0 0 4.48641 
205 1.62055 9.96119 1.31842 0.5 0.773412 6 7.79219e-012 12 0 0 0 4.54773 
337 2.58048 9.68133 1.30448 0.5 0.805842 7 3.22155e-012 16 0 0 0 4.69978 
270 4.12433 9.55721 1.31514 0.5 0.799754 4 3.18702e-011 15 0 0 0 4.62436 
257 6.78314 9.80184 1.30991 0.5 0.774238 5 1.8309e-011 14 0 0 0 4.51627 
389 8.79847 9.53855 1.82005 0.5 0.874347 5 1.05789e-011 16 0 0 0 4.97451 
176 9.85864 9.60444 1.79959 0.5 0.795075 6 2.75408e-011 14 0 0 0 4.65551 
320 0.272754 0.490007 2.00968 0.5 0.798046 9 6.87814e-011 12 0 0 0 4.72673 
468 1.25716 0.383168 2.149 0.5 0.804438 8 3.30987e-011 14 0 0 0 4.69084 
103 2.20032 0.050902 2.1523 0.5 0.813099 6 2.14712e-011 13 0 0 0 4.68346 
149 3.97132 0.395489 2.06107 0.5 0.882925 4 2.29629e-011 15 0 0 0 4.97542 
499 5.08284 0.615001 2.22545 0.5 0.875069 7 1.12629e-010 16 0 0 0 4.94042 
447 6.75242 0.49474 2.23154 0.5 0.787318 7 7.60585e-012 13 0 0 0 4.63981 
512 0.772129 1.32639 2.23548 0.5 0.79168 5 1.73411e-011 13 0 0 0 4.55224 
44 1.76709 1.24275 2.18099 0.5 0.863864 6 1.88495e-011 14 0 0 0 4.88931 
529 2.92707 0.737559 2.16954 0.5 0.883952 5 2.16429e-011 17 0 0 0 4.99522 
532 5.95689 1.10059 2.23927 0.5 0.84079 5 3.41072e-011 15 0 0 0 4.85449 
537 7.68371 0.829883 2.37412 0.5 0.82776 5 4.30403e-011 15 0 0 0 4.72625 
526 9.68635 1.25567 2.27392 0.5 0.808639 6 3.03262e-011 15 0 0 0 4.67538 
478 2.83982 1.73249 2.21924 0.5 0.824853 7 7.92914e-012 14 0 0 0 4.7776 
531 3.82165 1.55431 2.15503 0.5 0.831921 7 1.68451e-011 15 0 0 0 4.73216 
567 4.93309 1.59026 2.38791 0.5 0.838298 5 5.29604e-011 15 0 0 0 4.7504 
423 6.87263 1.45489 2.48377 0.5 0.868337 5 1.42683e-010 16 0 0 0 4.9213 
508 7.68646 1.75036 1.98342 0.5 0.79878 8 9.50957e-012 13 0 0 0 4.67614 
487 1.45912 2.19402 2.19208 0.5 0.822489 7 1.18491e-011 15 0 0 0 4.74308 
452 2.36708 2.61242 2.1727 0.5 0.838252 6 1.01956e-011 14 0 0 0 4.83627 
426 3.40135 2.551 2.098 0.5 0.798398 7 1.92491e-011 15 0 0 0 4.65942 
92 4.38623 2.37802 2.10448 0.5 0.761591 7 3.80568e-011 12 0 0 0 4.46997 
429 6.84531 2.3172 1.97817 0.5 0.854406 5 7.41811e-011 14 0 0 0 4.90098 
524 8.19866 2.60569 2.06061 0.5 0.802819 7 2.55875e-011 15 0 0 0 4.64235 
203 9.2033 2.11999 2.13399 0.5 0.778285 7 3.54334e-011 13 0 0 0 4.53143 
38 0.0333914 2.9873 2.16911 0.5 0.80681 7 1.34857e-011 15 0 0 0 4.69034 
40 1.02095 3.08758 2.28907 0.5 0.782976 6 1.53157e-012 14 0 0 0 4.59072 
477 5.04515 3.28652 1.9891 0.5 0.772594 8 1.92776e-011 14 0 0 0 4.50839 
903 7.37046 3.16599 2.06911 0.5 0.806756 4 2.10921e-011 14 0 0 0 4.63929 
494 9.04434 3.09835 2.26557 0.5 0.80647 5 2.45045e-011 14 0 0 0 4.6779 
104 1.92868 3.50619 2.26709 0.5 0.804112 6 5.27535e-012 14 0 0 0 4.69361 
193 2.83261 3.91062 2.12903 0.5 0.889303 5 4.38631e-013 15 0 0 0 4.97644 
200 4.05029 3.51283 2.02519 0.5 0.848171 4 6.28479e-013 14 0 0 0 4.80274 
396 6.43007 3.8961 2.15994 0.5 0.797198 4 4.27775e-011 14 0 0 0 4.56647 
440 8.31107 3.74626 2.05992 0.5 0.850988 5 3.17587e-011 16 0 0 0 4.8592 
129 0.0248547 4.52374 2.42273 0.5 0.757661 7 1.48323e-011 13 0 0 0 4.44518 
17 1.40219 4.35634 2.26975 0.5 0.838526 7 4.58772e-012 16 0 0 0 4.78893 
14 3.51475 4.64165 2.13096 0.5 0.764633 8 1.1142e-011 15 0 0 0 4.49942 
360 4.4867 4.40669 2.12782 0.5 0.740436 6 6.66751e-012 13 0 0 0 4.37792 
530 5.46171 4.1846 2.1294 0.5 0.73911 7 7.36514e-012 14 0 0 0 4.38281 
474 8.96625 4.52073 2.24092 0.5 0.837057 4 6.79168e-011 15 0 0 0 4.79413 
221 1.34528 5.33323 2.47548 0.5 0.80455 8 7.45152e-012 15 0 0 0 4.6653 
243 2.4915 4.85044 2.10953 0.5 0.824454 3 2.28835e-012 15 0 0 0 4.68064 
433 5.16747 5.14274 2.13022 0.5 0.718515 7 8.56588e-012 13 0 0 0 4.28973 
126 6.14177 4.91764 2.13408 0.5 0.750847 9 1.01799e-011 16 0 0 0 4.44474 
461 8.19087 5.14375 2.13814 0.5 0.821891 6 3.75609e-011 15 0 0 0 4.78301 
113 9.53857 5.32233 2.06812 0.5 0.818977 6 8.88932e-012 14 0 0 0 4.72706 
415 2.13963 5.79336 2.07905 0.5 0.755447 7 6.39754e-012 13 0 0 0 4.46515 
85 3.22174 5.59775 2.13187 0.5 0.765912 6 1.34989e-011 12 0 0 0 4.52787 
306 4.1953 5.37304 2.17182 0.5 0.72663 7 1.49324e-011 14 0 0 0 4.32009 
505 5.8524 5.87483 2.13362 0.5 0.753385 7 9.75359e-012 14 0 0 0 4.45213 
857 6.77021 5.63019 2.44599 0.5 0.831207 6 3.22205e-011 13 0 0 0 4.77209 
453 7.66741 5.99383 2.19556 0.5 0.776374 8 3.84441e-011 15 0 0 0 4.61406 
412 1.06109 6.28855 2.39471 0.5 0.796664 7 8.84627e-012 14 0 0 0 4.64952 
559 2.86722 6.53178 2.1747 0.5 0.824003 5 3.56707e-011 16 0 0 0 4.69903 
284 3.90476 6.32907 2.13216 0.5 0.72715 6 1.44077e-011 13 0 0 0 4.3242 
273 4.87862 6.10197 2.13364 0.5 0.723741 7 1.26059e-011 13 0 0 0 4.31066 
492 8.66591 6.01719 2.24455 0.5 0.893771 6 5.25521e-011 16 0 0 0 5.04049 
386 9.61894 6.31764 2.20777 0.5 0.816 6 2.54858e-011 13 0 0 0 4.70065 
239 0.373424 6.97113 2.14759 0.5 0.806722 7 1.06553e-011 14 0 0 0 4.68717 
97 1.897 6.76317 2.1032 0.5 0.763178 6 2.7083e-011 12 0 0 0 4.51222 
381 3.61466 7.28605 2.13024 0.5 0.722773 7 1.3834e-011 14 0 0 0 4.30672 
101 4.58841 7.05887 2.13285 0.5 0.713394 8 1.11357e-011 14 0 0 0 4.26804 
400 5.56218 6.83173 2.14102 0.5 0.755425 6 1.53732e-011 12 0 0 0 4.44943 
105 6.50442 7.16231 2.08917 0.5 0.91568 6 5.8976e-012 15 0 0 0 5.17116 
77 9.0169 7.23823 2.04577 0.5 0.829003 5 9.8663e-012 15 0 0 0 4.77928 
30 2.63884 7.50436 2.13121 0.5 0.743275 7 7.03038e-012 15 0 0 0 4.38823 
418 5.27204 7.78863 2.13307 0.5 0.746185 8 7.58973e-012 16 0 0 0 4.44645 
368 7.198 7.84148 2.32932 0.5 0.935242 4 2.04804e-011 16 0 0 0 5.19886 
361 8.07238 7.35678 2.35197 0.5 0.856301 7 1.74715e-011 16 0 0 0 4.92791 
248 9.83753 7.89769 2.22912 0.5 0.816078 5 1.46583e-011 15 0 0 0 4.75545 
344 1.22443 8.48966 2.51507 0.5 0.848128 7 2.49663e-011 15 0 0 0 4.8908 
82 3.31081 8.24996 2.118 0.5 0.730816 5 1.54142e-012 14 0 0 0 4.33967 
451 4.2983 8.01584 2.1288 0.5 0.712605 8 1.21703e-011 14 0 0 0 4.26461 
352 5.95573 8.5183 2.13594 0.5 0.86986 6 5.57431e-012 17 0 0 0 4.95017 
278 8.58286 8.1375 1.99181 0.5 0.791475 8 1.05416e-011 14 0 0 0 4.63973 
354 0.361001 8.80061 2.11793 0.5 0.793603 7 3.33958e-011 14 0 0 0 4.62242 
240 3.99637 8.97785 2.12007 0.5 0.755862 8 2.48294e-011 14 0 0 0 4.46358 
56 4.98192 8.74561 2.13791 0.5 0.790289 6 1.00602e-011 14 0 0 0 4.62617 
343 6.89122 8.86115 2.22071 0.5 0.826013 6 2.86691e-011 14 0 0 0 4.77749 
349 7.86581 8.84775 1.99739 0.5 0.797654 6 1.61379e-010 13 0 0 0 4.62401 
486 0.504667 9.68679 2.55832 0.5 0.777519 7 6.76201e-011 14 0 0 0 4.56197 
140 1.37384 9.39085 2.10825 0.5 0.82768 4 7.202e-012 15 0 0 0 4.7797 
560 3.28337 9.67116 2.0156 0.5 0.799057 7 2.71767e-011 15 0 0 0 4.62459 
449 4.68667 9.70103 2.1381 0.5 0.788354 6 1.74355e-011 15 0 0 0 4.64349 
375 6.24038 9.63407 2.13283 0.5 0.857519 5 2.2864e-011 16 0 0 0 4.98509 
110 7.38019 9.72619 2.10852 0.5 0.799168 6 1.5369e-011 15 0 0 0 4.60766 
150 0.755353 0.649971 2.9718 0.5 0.796074 4 6.37398e-011 14 0 0 0 4.61742 
86 2.01665 0.640321 2.93894 0.5 0.891182 6 4.80287e-012 16 0 0 0 4.96746 
188 2.89766 0.0229997 2.8685 0.5 0.859655 3 4.39079e-011 15 0 0 0 4.82941 
76 4.77648 0.125459 3.04179 0.5 0.782859 6 2.80732e-011 14 0 0 0 4.55321 
746 5.98453 0.303867 2.84291 0.5 0.876097 5 1.12173e-011 15 0 0 0 5.0025 
345 7.21686 0.0792814 3.02972 0.5 0.805378 5 3.14847e-010 14 0 0 0 4.62733 
312 8.19022 0.00549958 2.62667 0.5 0.791625 6 3.01447e-011 14 0 0 0 4.61935 
419 9.75086 0.281925 2.8368 0.5 0.822925 6 3.46663e-011 15 0 0 0 4.74424 
28 3.30652 1.23439 2.95002 0.5 0.851516 7 9.54752e-012 14 0 0 0 4.88781 
534 4.28189 0.96686 2.82067 0.5 0.805868 5 1.25565e-011 13 0 0 0 4.73356 
303 5.3001 0.972403 3.13365 0.5 0.809467 7 3.98106e-011 13 0 0 0 4.73544 
217 8.85957 0.731998 2.78213 0.5 0.790793 9 2.47655e-011 14 0 0 0 4.6511 
470 0.190896 1.46347 3.11183 0.5 0.834262 7 5.83697e-012 14 0 0 0 4.77532 
575 1.18719 1.5488 3.11763 0.5 0.846427 6 9.38389e-012 16 0 0 0 4.83623 
473 2.10484 1.86951 2.88319 0.5 0.855614 6 5.39647e-011 14 0 0 0 4.84801 
491 4.20266 1.94903 2.99101 0.5 0.832896 6 5.02584e-012 15 0 0 0 4.77201 
456 5.8012 1.97074 2.70664 0.5 0.883659 6 5.16638e-012 16 0 0 0 4.92119 
811 8.26882 1.53869 2.76827 0.5 0.79263 6 2.77055e-011 13 0 0 0 4.64047 
116 9.2015 1.60802 3.12214 0.5 0.79812 6 1.41205e-011 14 0 0 0 4.65531 
127 0.624708 2.28225 2.73597 0.5 0.818349 6 2.19901e-012 14 0 0 0 4.7813 
422 3.24353 2.22901 3.03147 0.5 0.791151 6 8.98974e-012 13 0 0 0 4.58553 
314 6.64879 2.08918 3.22373 0.5 0.786619 9 2.38536e-011 13 0 0 0 4.6107 
325 7.49285 2.35346 2.75719 0.5 0.814784 4 4.03107e-011 15 0 0 0 4.65256 
554 8.66708 2.44175 2.92873 0.5 0.749082 5 2.4428e-011 12 0 0 0 4.41975 
471 9.66631 2.47564 2.9458 0.5 0.819839 8 3.71487e-012 16 0 0 0 4.73074 
392 1.70208 2.78954 2.95779 0.5 0.804782 4 2.12606e-011 14 0 0 0 4.63718 
93 2.96377 3.15178 2.7667 0.5 0.818436 8 4.72236e-012 13 0 0 0 4.78404 
317 3.98443 2.91415 2.84683 0.5 0.810732 4 2.92541e-011 14 0 0 0 4.66779 
566 5.05845 2.67698 2.78165 0.5 0.797733 6 1.41717e-011 13 0 0 0 4.62965 
635 6.64336 2.95419 2.7221 0.5 0.797794 5 2.93754e-011 13 0 0 0 4.62805 
572 8.01823 3.1998 2.84443 0.5 0.801659 6 2.72604e-011 14 0 0 0 4.66874 
1012 0.399422 3.67837 2.80343 0.5 0.788117 8 9.06428e-012 15 0 0 0 4.60416 
29 1.36427 3.74237 3.05807 0.5 0.766123 6 3.29453e-012 12 0 0 0 4.48983 
515 2.35478 3.87446 3.0934 0.5 0.84681 6 9.70726e-012 16 0 0 0 4.79678 
539 3.66098 3.85979 2.87841 0.5 0.781479 8 6.60155e-012 13 0 0 0 4.56379 
276 4.64069 3.66821 2.82014 0.5 0.804554 6 1.37733e-011 14 0 0 0 4.62311 
435 5.74704 3.39652 2.69267 0.5 0.776095 8 1.4588e-011 15 0 0 0 4.57139 
550 7.19147 3.72107 3.05588 0.5 0.812636 6 3.3305e-011 15 0 0 0 4.68974 
436 9.41318 3.84178 2.82331 0.5 0.818345 9 2.40162e-011 14 0 0 0 4.79022 
516 3.01842 4.61642 2.99867 0.5 0.802458 6 7.76264e-012 14 0 0 0 4.62552 
170 5.03713 4.57774 2.94493 0.5 0.736309 9 6.56196e-012 15 0 0 0 4.41216 
538 6.00525 4.32575 2.95674 0.5 0.762574 6 1.06356e-011 13 0 0 0 4.5144 
175 6.92284 4.60571 2.67487 0.5 0.791038 7 1.21957e-011 13 0 0 0 4.64487 
441 7.89623 4.38007 2.71254 0.5 0.835563 7 1.42318e-011 14 0 0 0 4.84684 
878 8.74192 4.45405 3.24088 0.5 0.87711 5 2.94153e-011 16 0 0 0 5.0074 
180 0.887247 4.67011 3.06748 0.5 0.84986 3 3.69829e-010 15 0 0 0 4.77914 
327 1.94931 4.78776 3.05645 0.5 0.863767 4 4.24806e-012 17 0 0 0 4.91863 
68 4.05677 4.77432 2.96069 0.5 0.777076 7 1.35665e-011 14 0 0 0 4.53476 
334 5.71624 5.31172 2.94869 0.5 0.780876 8 1.41639e-011 15 0 0 0 4.55214 
89 7.58991 5.30905 2.92009 0.5 0.80839 8 6.3705e-012 13 0 0 0 4.6992 
509 9.48329 5.09425 3.04002 0.5 0.791441 8 1.47194e-011 13 0 0 0 4.66422 
69 0.368767 5.43018 2.66783 0.5 0.787054 4 1.31965e-011 14 0 0 0 4.55626 
158 2.61012 5.52574 2.91969 0.5 0.819063 7 6.4262e-012 13 0 0 0 4.75245 
174 3.73813 5.75963 2.97278 0.5 0.861299 3 2.26666e-011 16 0 0 0 4.87898 
332 4.71756 5.52296 3.01147 0.5 0.784137 4 4.75336e-012 14 0 0 0 4.59729 
365 8.56172 5.47981 3.08135 0.5 0.841274 7 3.49592e-012 16 0 0 0 4.87648 
51 0.302263 6.39334 3.03748 0.5 0.806489 5 6.85982e-012 15 0 0 0 4.6401 
24 1.89273 6.22547 2.94631 0.5 0.776725 7 1.63137e-011 14 0 0 0 4.54989 
11 4.42158 6.48963 2.97289 0.5 0.773127 7 1.63369e-011 15 0 0 0 4.57233 
107 5.39433 6.25806 2.976 0.5 0.752984 7 9.02795e-012 13 0 0 0 4.44501 
432 6.35453 6.47004 2.79501 0.5 0.882302 5 1.91845e-011 15 0 0 0 4.99937 
547 7.90622 6.2329 3.1367 0.5 0.828337 6 6.27811e-012 14 0 0 0 4.81536 
179 9.35828 6.08095 3.1436 0.5 0.820059 7 2.38019e-011 15 0 0 0 4.75859 
431 1.14342 6.91837 3.16704 0.5 0.808318 6 8.27358e-012 16 0 0 0 4.66267 
291 2.40727 7.08072 3.00691 0.5 0.829229 5 1.01589e-011 14 0 0 0 4.71312 
428 3.45033 6.72744 2.96314 0.5 0.806485 4 4.45062e-012 14 0 0 0 4.67875 
296 5.13841 7.22452 2.95717 0.5 0.770403 6 1.71253e-011 14 0 0 0 4.50398 
466 7.27731 6.81188 2.61793 0.5 0.891236 6 1.84248e-011 13 0 0 0 5.02542 
98 8.69933 6.7864 2.88261 0.5 0.831863 7 1.99373e-011 14 0 0 0 4.87697 
255 9.6426 7.11148 2.81543 0.5 0.819662 6 7.78254e-012 14 0 0 0 4.69552 
9 0.658984 7.70376 2.76532 0.5 0.845289 6 1.98867e-011 16 0 0 0 4.89405 
109 1.63985 7.58516 2.61126 0.5 0.798277 8 1.76761e-011 16 0 0 0 4.69063 
218 3.19442 7.69388 2.94076 0.5 0.739592 9 6.2173e-012 14 0 0 0 4.41396 
511 4.16564 7.45598 2.94745 0.5 0.735404 5 1.67284e-011 13 0 0 0 4.36747 
331 6.01493 7.67693 2.79289 0.5 0.850527 7 1.06362e-011 13 0 0 0 4.87637 
75 0.0790075 8.47719 3.02106 0.5 0.809689 6 1.95857e-011 16 0 0 0 4.73776 
71 2.42414 8.29349 2.70653 0.5 0.795143 6 7.57749e-012 14 0 0 0 4.60171 
184 3.88128 8.42064 2.94238 0.5 0.783952 7 1.27651e-012 15 0 0 0 4.61292 
366 4.85249 8.18275 2.95424 0.5 0.793094 6 1.22123e-011 15 0 0 0 4.6459 
81 5.75309 8.58745 3.11271 0.5 0.830657 6 9.12438e-012 13 0 0 0 4.81767 
209 6.71943 8.33658 3.05447 0.5 0.88271 6 8.56386e-012 15 0 0 0 5.00011 
347 7.99216 8.25192 2.79045 0.5 0.808315 6 8.38043e-011 14 0 0 0 4.67726 
65 9.12215 8.26336 2.82447 0.5 0.85878 5 3.57145e-012 15 0 0 0 4.86011 
197 0.860242 9.05614 3.2543 0.5 0.821828 4 4.58273e-011 14 0 0 0 4.80972 
540 2.13127 9.24882 2.74548 0.5 0.819268 7 7.49811e-012 16 0 0 0 4.74944 
60 3.10552 9.02369 2.75662 0.5 0.781792 7 7.77952e-012 14 0 0 0 4.58314 
226 4.57759 9.10426 3.2285 0.5 0.848408 5 2.13406e-011 15 0 0 0 4.78162 